####################################################################### 
# 
# This file contains crystal structure data downloaded from the 
# Cambridge Structural Database (CSD) hosted by the Cambridge 
# Crystallographic Data Centre (CCDC).
# 
# Full information about CCDC data access policies and citation 
# guidelines are available at http://www.ccdc.cam.ac.uk/access/V1 
# 
# Audit and citation data items may have been added by the CCDC. 
# Please retain this information to preserve the provenance of 
# this file and to allow appropriate attribution of the data. 
# 
#######################################################################

data_FMOF-1T90K_vacuum
_audit_block_doi                 10.5517/ccqqh74
_database_code_depnum_ccdc_archive 'CCDC 677016'
loop_
_citation_id
_citation_doi
_citation_year
1 10.1002/anie.200804739 2009
_audit_update_record             
;
2008-02-05 deposited with the CCDC.	2021-12-15 downloaded from the CCDC.
;

_audit_creation_method           SHELXL-97
_chemical_name_systematic        
;
?
;
_chemical_name_common            {Ag2[Ag4Tz6]}n
_chemical_melting_point          ?
_chemical_formula_moiety         ?
_chemical_formula_sum            'C24 Ag6 F36 N18'
_chemical_formula_weight         1871.64

loop_
_atom_type_symbol
_atom_type_description
_atom_type_scat_dispersion_real
_atom_type_scat_dispersion_imag
_atom_type_scat_source
C C 0.0033 0.0016 'International Tables Vol C Tables 4.2.6.8 and 6.1.1.4'
N N 0.0061 0.0033 'International Tables Vol C Tables 4.2.6.8 and 6.1.1.4'
F F 0.0171 0.0103 'International Tables Vol C Tables 4.2.6.8 and 6.1.1.4'
Ag Ag -0.8971 1.1015 'International Tables Vol C Tables 4.2.6.8 and 6.1.1.4'

_symmetry_cell_setting           Tetragonal
_symmetry_space_group_name_H-M   'I -4 2 d'

loop_
_symmetry_equiv_pos_as_xyz
'x, y, z'
'-x, -y, z'
'y, -x, -z'
'-y, x, -z'
'-x+1/2, y, -z+3/4'
'x+1/2, -y, -z+3/4'
'-y+1/2, -x, z+3/4'
'y+1/2, x, z+3/4'
'x+1/2, y+1/2, z+1/2'
'-x+1/2, -y+1/2, z+1/2'
'y+1/2, -x+1/2, -z+1/2'
'-y+1/2, x+1/2, -z+1/2'
'-x+1, y+1/2, -z+5/4'
'x+1, -y+1/2, -z+5/4'
'-y+1, -x+1/2, z+5/4'
'y+1, x+1/2, z+5/4'

_cell_length_a                   13.4026(7)
_cell_length_b                   13.4026(7)
_cell_length_c                   39.218(4)
_cell_angle_alpha                90.00
_cell_angle_beta                 90.00
_cell_angle_gamma                90.00
_cell_volume                     7044.8(8)
_cell_formula_units_Z            4
_cell_measurement_temperature    90(2)
_cell_measurement_reflns_used    9844
_cell_measurement_theta_min      2.38
_cell_measurement_theta_max      26.30

_exptl_crystal_description       block
_exptl_crystal_colour            colorless
_exptl_crystal_size_max          0.53
_exptl_crystal_size_mid          0.25
_exptl_crystal_size_min          0.25
_exptl_crystal_density_meas      ?
_exptl_crystal_density_diffrn    1.765
_exptl_crystal_density_method    'not measured'
_exptl_crystal_F_000             3504
_exptl_absorpt_coefficient_mu    1.763
_exptl_absorpt_correction_type   multi-scan
_exptl_absorpt_correction_T_min  0.4557
_exptl_absorpt_correction_T_max  0.6710
_exptl_absorpt_process_details   SADABS

_exptl_special_details           
;
?
;

_diffrn_ambient_temperature      90(2)
_diffrn_radiation_wavelength     0.71073
_diffrn_radiation_type           MoK\a
_diffrn_radiation_source         'fine-focus sealed tube'
_diffrn_radiation_monochromator  graphite
_diffrn_measurement_device_type  'Bruker SMART APEX II CCD'
_diffrn_measurement_method       '\w scans'
_diffrn_detector_area_resol_mean ?
_diffrn_standards_number         ?
_diffrn_standards_interval_count ?
_diffrn_standards_interval_time  ?
_diffrn_standards_decay_%        ?
_diffrn_reflns_number            33615
_diffrn_reflns_av_R_equivalents  0.0346
_diffrn_reflns_av_sigmaI/netI    0.0170
_diffrn_reflns_limit_h_min       -15
_diffrn_reflns_limit_h_max       15
_diffrn_reflns_limit_k_min       -15
_diffrn_reflns_limit_k_max       15
_diffrn_reflns_limit_l_min       -46
_diffrn_reflns_limit_l_max       46
_diffrn_reflns_theta_min         2.08
_diffrn_reflns_theta_max         25.10
_reflns_number_total             3129
_reflns_number_gt                2618
_reflns_threshold_expression     >2sigma(I)

_computing_data_collection       'APEX2 (Bruker-AXS 2007)'
_computing_cell_refinement       'APEX2 (Bruker-AXS 2007)'
_computing_data_reduction        'APEX2 (Bruker-AXS 2007)'
_computing_structure_solution    'SHELXS-97 (Sheldrick, 1990)'
_computing_structure_refinement  'SHELXL-97 (Sheldrick, 1997)'
_computing_molecular_graphics    ?
_computing_publication_material  ?

_refine_special_details          
;
Refinement of F^2^ against ALL reflections. The weighted R-factor wR and
goodness of fit S are based on F^2^, conventional R-factors R are based
on F, with F set to zero for negative F^2^. The threshold expression of
F^2^ > 2sigma(F^2^) is used only for calculating R-factors(gt) etc. and is
not relevant to the choice of reflections for refinement. R-factors based
on F^2^ are statistically about twice as large as those based on F, and R-
factors based on ALL data will be even larger.
;

_refine_ls_structure_factor_coef Fsqd
_refine_ls_matrix_type           full
_refine_ls_weighting_scheme      calc
_refine_ls_weighting_details     
'calc w=1/[\s^2^(Fo^2^)+(0.0605P)^2^+89.6842P] where P=(Fo^2^+2Fc^2^)/3'
_atom_sites_solution_primary     direct
_atom_sites_solution_secondary   difmap
_atom_sites_solution_hydrogens   .
_refine_ls_hydrogen_treatment    .
_refine_ls_extinction_method     none
_refine_ls_extinction_coef       ?
_refine_ls_abs_structure_details 'Flack H D (1983), Acta Cryst. A39, 876-881'
_refine_ls_abs_structure_Flack   -0.02(10)
_refine_ls_number_reflns         3129
_refine_ls_number_parameters     191
_refine_ls_number_restraints     0
_refine_ls_R_factor_all          0.0780
_refine_ls_R_factor_gt           0.0563
_refine_ls_wR_factor_ref         0.1743
_refine_ls_wR_factor_gt          0.1405
_refine_ls_goodness_of_fit_ref   1.243
_refine_ls_restrained_S_all      1.243
_refine_ls_shift/su_max          0.000
_refine_ls_shift/su_mean         0.000

loop_
_atom_site_label
_atom_site_type_symbol
_atom_site_fract_x
_atom_site_fract_y
_atom_site_fract_z
_atom_site_U_iso_or_equiv
_atom_site_adp_type
_atom_site_occupancy
_atom_site_symmetry_multiplicity
_atom_site_calc_flag
_atom_site_refinement_flags
_atom_site_disorder_assembly
_atom_site_disorder_group
Ag1 Ag 0.0000 0.5000 0.09733(3) 0.0531(3) Uani 1 2 d S . .
Ag2 Ag -0.13881(7) 0.38274(7) 0.24463(3) 0.0658(3) Uani 1 1 d . . .
N1 N 0.0000 0.5000 0.1537(3) 0.051(3) Uani 1 2 d S . .
N2 N -0.0487(7) 0.5189(8) 0.2075(3) 0.057(2) Uani 1 1 d . . .
N3 N 0.0069(9) 0.6330(7) 0.0615(2) 0.058(2) Uani 1 1 d . . .
N4 N -0.0383(8) 0.7446(8) 0.0226(3) 0.062(3) Uani 1 1 d . . .
N5 N 0.0593(8) 0.7624(8) 0.0308(3) 0.059(2) Uani 1 1 d . . .
C1 C -0.0716(10) 0.5296(10) 0.1750(3) 0.062(3) Uani 1 1 d . . .
C2 C -0.1682(11) 0.5742(12) 0.1643(4) 0.071(4) Uani 1 1 d . . .
C3 C -0.0632(10) 0.6683(9) 0.0412(3) 0.058(3) Uani 1 1 d . . .
C4 C 0.0821(10) 0.6930(10) 0.0539(3) 0.059(3) Uani 1 1 d . . .
C5 C 0.1849(12) 0.6913(12) 0.0697(4) 0.076(4) Uani 1 1 d . . .
C6 C -0.1664(11) 0.6257(12) 0.0396(4) 0.078(4) Uani 1 1 d . . .
F1 F -0.1556(8) 0.6636(9) 0.1520(3) 0.117(4) Uani 1 1 d . . .
F2 F -0.2092(6) 0.5221(9) 0.1399(2) 0.107(4) Uani 1 1 d . . .
F3 F -0.2298(7) 0.5878(10) 0.1891(2) 0.109(4) Uani 1 1 d . . .
F4 F 0.2120(9) 0.7797(8) 0.0797(4) 0.125(4) Uani 1 1 d . . .
F5 F 0.2542(8) 0.6710(11) 0.0464(3) 0.128(4) Uani 1 1 d . . .
F6 F 0.1949(7) 0.6247(7) 0.0911(2) 0.097(3) Uani 1 1 d . . .
F7 F -0.2033(8) 0.6095(13) 0.0688(3) 0.146(6) Uani 1 1 d . . .
F8 F -0.1630(9) 0.5316(8) 0.0274(4) 0.151(6) Uani 1 1 d . . .
F9 F -0.2286(7) 0.6739(7) 0.0212(3) 0.105(3) Uani 1 1 d . . .

loop_
_atom_site_aniso_label
_atom_site_aniso_U_11
_atom_site_aniso_U_22
_atom_site_aniso_U_33
_atom_site_aniso_U_23
_atom_site_aniso_U_13
_atom_site_aniso_U_12
Ag1 0.0504(7) 0.0536(7) 0.0553(7) 0.000 0.000 0.0016(6)
Ag2 0.0650(6) 0.0676(6) 0.0648(6) -0.0093(5) 0.0111(5) 0.0028(4)
N1 0.036(6) 0.058(7) 0.058(7) 0.000 0.000 0.007(7)
N2 0.049(5) 0.054(6) 0.067(6) 0.002(5) 0.005(5) 0.005(4)
N3 0.067(6) 0.046(5) 0.061(5) -0.003(4) -0.018(5) -0.006(5)
N4 0.064(6) 0.057(6) 0.065(6) 0.009(5) -0.008(5) -0.014(5)
N5 0.059(6) 0.053(6) 0.065(6) 0.013(5) -0.002(5) -0.003(5)
C1 0.060(7) 0.069(8) 0.057(7) 0.008(6) 0.013(6) 0.000(6)
C2 0.071(9) 0.077(9) 0.065(8) 0.002(7) -0.007(7) 0.018(7)
C3 0.060(7) 0.053(7) 0.062(7) -0.003(6) -0.006(6) -0.015(6)
C4 0.062(8) 0.053(7) 0.062(7) 0.000(6) -0.012(6) -0.004(6)
C5 0.076(9) 0.063(9) 0.091(11) 0.015(8) -0.016(8) -0.016(7)
C6 0.063(8) 0.072(10) 0.100(11) 0.019(8) -0.017(8) -0.020(7)
F1 0.093(7) 0.098(7) 0.160(10) 0.024(7) -0.027(7) 0.029(6)
F2 0.065(5) 0.160(10) 0.095(6) -0.046(7) -0.024(4) 0.048(6)
F3 0.073(6) 0.172(11) 0.082(5) -0.013(6) 0.009(5) 0.045(6)
F4 0.122(9) 0.070(6) 0.181(11) 0.010(7) -0.080(9) -0.021(6)
F5 0.065(6) 0.175(12) 0.143(10) 0.029(9) 0.007(7) 0.001(7)
F6 0.082(6) 0.089(6) 0.119(7) 0.034(6) -0.041(5) -0.016(5)
F7 0.075(7) 0.233(17) 0.129(9) 0.062(10) -0.018(6) -0.063(9)
F8 0.111(8) 0.083(7) 0.258(16) 0.005(8) -0.081(10) -0.032(6)
F9 0.070(5) 0.092(6) 0.152(9) 0.046(6) -0.051(6) -0.017(4)

_geom_special_details            
;
All esds (except the esd in the dihedral angle between two l.s. planes)
are estimated using the full covariance matrix. The cell esds are taken
into account individually in the estimation of esds in distances, angles
and torsion angles; correlations between esds in cell parameters are only
used when they are defined by crystal symmetry. An approximate (isotropic)
treatment of cell esds is used for estimating esds involving l.s. planes.
;

loop_
_geom_bond_atom_site_label_1
_geom_bond_atom_site_label_2
_geom_bond_distance
_geom_bond_site_symmetry_2
_geom_bond_publ_flag
Ag1 N1 2.209(12) . ?
Ag1 N3 2.272(9) 2_565 ?
Ag1 N3 2.272(9) . ?
Ag2 N5 2.176(10) 13_444 ?
Ag2 N4 2.182(11) 16_354 ?
Ag2 N2 2.629(10) . ?
Ag2 N2 2.636(10) 12 ?
Ag2 Ag2 3.4697(14) 11_455 ?
Ag2 Ag2 4.871(2) 2_565 ?
N1 C1 1.333(14) 2_565 ?
N1 C1 1.333(14) . ?
N2 C1 1.320(16) . ?
N2 N2 1.400(19) 2_565 ?
N2 Ag2 2.636(10) 11_455 ?
N3 C3 1.320(16) . ?
N3 C4 1.322(17) . ?
N4 C3 1.300(16) . ?
N4 N5 1.368(14) . ?
N4 Ag2 2.182(11) 8_464 ?
N5 C4 1.334(16) . ?
N5 Ag2 2.176(10) 13_454 ?
C1 C2 1.487(19) . ?
C2 F3 1.289(17) . ?
C2 F1 1.303(18) . ?
C2 F2 1.307(17) . ?
C3 C6 1.497(18) . ?
C4 C5 1.51(2) . ?
C5 F6 1.233(17) . ?
C5 F4 1.300(18) . ?
C5 F5 1.33(2) . ?
C6 F7 1.266(19) . ?
C6 F9 1.278(16) . ?
C6 F8 1.35(2) . ?

loop_
_geom_angle_atom_site_label_1
_geom_angle_atom_site_label_2
_geom_angle_atom_site_label_3
_geom_angle
_geom_angle_site_symmetry_1
_geom_angle_site_symmetry_3
_geom_angle_publ_flag
N1 Ag1 N3 128.2(2) . 2_565 ?
N1 Ag1 N3 128.2(2) . . ?
N3 Ag1 N3 103.6(5) 2_565 . ?
N5 Ag2 N4 160.2(4) 13_444 16_354 ?
N5 Ag2 N2 92.0(4) 13_444 . ?
N4 Ag2 N2 105.7(4) 16_354 . ?
N5 Ag2 N2 106.6(3) 13_444 12 ?
N4 Ag2 N2 84.8(4) 16_354 12 ?
N2 Ag2 N2 82.6(4) . 12 ?
N5 Ag2 Ag2 138.4(3) 13_444 11_455 ?
N4 Ag2 Ag2 61.2(3) 16_354 11_455 ?
N2 Ag2 Ag2 48.9(2) . 11_455 ?
N2 Ag2 Ag2 61.2(2) 12 11_455 ?
N5 Ag2 Ag2 96.0(3) 13_444 2_565 ?
N4 Ag2 Ag2 103.5(3) 16_354 2_565 ?
N2 Ag2 Ag2 36.9(2) . 2_565 ?
N2 Ag2 Ag2 46.3(2) 12 2_565 ?
Ag2 Ag2 Ag2 45.422(4) 11_455 2_565 ?
C1 N1 C1 102.3(14) 2_565 . ?
C1 N1 Ag1 128.9(7) 2_565 . ?
C1 N1 Ag1 128.9(7) . . ?
C1 N2 N2 104.8(7) . 2_565 ?
C1 N2 Ag2 120.2(8) . . ?
N2 N2 Ag2 100.2(8) 2_565 . ?
C1 N2 Ag2 122.8(8) . 11_455 ?
N2 N2 Ag2 123.1(6) 2_565 11_455 ?
Ag2 N2 Ag2 82.5(3) . 11_455 ?
C3 N3 C4 100.9(9) . . ?
C3 N3 Ag1 128.7(8) . . ?
C4 N3 Ag1 130.3(9) . . ?
C3 N4 N5 104.5(10) . . ?
C3 N4 Ag2 136.1(9) . 8_464 ?
N5 N4 Ag2 117.2(8) . 8_464 ?
C4 N5 N4 104.9(10) . . ?
C4 N5 Ag2 135.8(9) . 13_454 ?
N4 N5 Ag2 119.3(8) . 13_454 ?
N2 C1 N1 114.0(12) . . ?
N2 C1 C2 121.2(11) . . ?
N1 C1 C2 124.7(12) . . ?
F3 C2 F1 103.6(13) . . ?
F3 C2 F2 111.2(14) . . ?
F1 C2 F2 105.9(13) . . ?
F3 C2 C1 113.7(12) . . ?
F1 C2 C1 111.1(13) . . ?
F2 C2 C1 110.9(12) . . ?
N4 C3 N3 116.0(11) . . ?
N4 C3 C6 120.9(12) . . ?
N3 C3 C6 123.1(12) . . ?
N3 C4 N5 113.7(11) . . ?
N3 C4 C5 126.5(12) . . ?
N5 C4 C5 119.8(12) . . ?
F6 C5 F4 115.2(15) . . ?
F6 C5 F5 104.0(14) . . ?
F4 C5 F5 101.4(14) . . ?
F6 C5 C4 112.9(13) . . ?
F4 C5 C4 111.4(13) . . ?
F5 C5 C4 111.1(13) . . ?
F7 C6 F9 110.0(15) . . ?
F7 C6 F8 99.9(14) . . ?
F9 C6 F8 107.1(13) . . ?
F7 C6 C3 112.9(13) . . ?
F9 C6 C3 115.7(12) . . ?
F8 C6 C3 109.9(13) . . ?

_diffrn_measured_fraction_theta_max 0.995
_diffrn_reflns_theta_full        25.10
_diffrn_measured_fraction_theta_full 0.995
_refine_diff_density_max         0.897
_refine_diff_density_min         -0.773
_refine_diff_density_rms         0.148
